LAMMPS data file

64 atoms
1 atom types

0.0000000000000000e+00 10.9440000000 xlo xhi
0.0000000000000000e+00 10.9440000000 ylo yhi
0.0000000000000000e+00 10.9440000000 zlo zhi

Masses

1 27.9

Atoms # atomic

1	1	5.472	0	0
2	1	8.208	2.736	0
3	1	8.208	0	2.736
4	1	0	0	0
5	1	2.736	2.736	0
6	1	5.472	5.472	0
7	1	8.208	8.208	0
8	1	2.736	0	2.736
9	1	5.472	2.736	2.736
10	1	8.208	5.472	2.736
11	1	5.472	0	5.472
12	1	8.208	2.736	5.472
13	1	8.208	0	8.208
14	1	0	5.472	0
15	1	2.736	8.208	0
16	1	0	2.736	2.736
17	1	2.736	5.472	2.736
18	1	5.472	8.208	2.736
19	1	0	0	5.472
20	1	2.736	2.736	5.472
21	1	5.472	5.472	5.472
22	1	8.208	8.208	5.472
23	1	2.736	0	8.208
24	1	5.472	2.736	8.208
25	1	8.208	5.472	8.208
26	1	0	8.208	2.736
27	1	0	5.472	5.472
28	1	2.736	8.208	5.472
29	1	0	2.736	8.208
30	1	2.736	5.472	8.208
31	1	5.472	8.208	8.208
32	1	0	8.208	8.208
33	1	6.84	1.368	1.368
34	1	9.576	4.104	1.368
35	1	9.576	1.368	4.104
36	1	1.368	1.368	1.368
37	1	4.104	4.104	1.368
38	1	6.84	6.84	1.368
39	1	9.576	9.576	1.368
40	1	4.104	1.368	4.104
41	1	6.84	4.104	4.104
42	1	9.576	6.84	4.104
43	1	6.84	1.368	6.84
44	1	9.576	4.104	6.84
45	1	9.576	1.368	9.576
46	1	1.368	6.84	1.368
47	1	4.104	9.576	1.368
48	1	1.368	4.104	4.104
49	1	4.104	6.84	4.104
50	1	6.84	9.576	4.104
51	1	1.368	1.368	6.84
52	1	4.104	4.104	6.84
53	1	6.84	6.84	6.84
54	1	9.576	9.576	6.84
55	1	4.104	1.368	9.576
56	1	6.84	4.104	9.576
57	1	9.576	6.84	9.576
58	1	1.368	9.576	4.104
59	1	1.368	6.84	6.84
60	1	4.104	9.576	6.84
61	1	1.368	4.104	9.576
62	1	4.104	6.84	9.576
63	1	6.84	9.576	9.576
64	1	1.368	9.576	9.576

